LAMMPS data file. msi2lmp v3.9.9 / 05 Nov 2018 / CGCMM for agraphenes

    960 atoms
   1395 bonds
   2703 angles
   5252 dihedrals
    873 impropers

   1 atom types
   1 bond types
   1 angle types
   1 dihedral types

     0.860000014    55.847999573 xlo xhi
    49.861999512    58.990001678 ylo yhi
     2.812000036    71.127998352 zlo zhi

Masses

   1  12.011150 # CT

Pair Coeffs # lj/cut/coul/long

   1   0.0659999660   3.5000001502 # CT

Bond Coeffs # harmonic

   1   268.0000     1.5290 # CT-CT

Angle Coeffs # harmonic

   1    58.3500   112.7000 # CT-CT-CT

Dihedral Coeffs # opls

   1     1.7400    -0.1570     0.2790     0.0000 # CT-CT-CT-CT

Improper Coeffs # cvff

    1     0.0000   0   0 # CT-CT-CT-CT

Atoms # full

      1      1   1  0.000000    40.789001465    53.011001587     4.322999954   0   0   0 # CT
      2      2   1  0.000000    39.805000305    53.160999298     3.312000036   0   0   0 # CT
      3      3   1  0.000000    38.445999146    53.349998474     3.667999983   0   0   0 # CT
      4      4   1  0.000000    38.069000244    53.388999939     5.033999920   0   0   0 # CT
      5      5   1  0.000000    41.395000458    52.901000977     6.699999809   0   0   0 # CT
      6      6   1  0.000000    40.411998749    53.049999237     5.689000130   0   0   0 # CT
      7      7   1  0.000000    39.051998138    53.238998413     6.045000076   0   0   0 # CT
      8      8   1  0.000000    38.675998688    53.278999329     7.412000179   0   0   0 # CT
      9      9   1  0.000000    42.001998901    52.790000916     9.078000069   0   0   0 # CT
     10     10   1  0.000000    41.019001007    52.939998627     8.067000389   0   0   0 # CT
     11     11   1  0.000000    39.659000397    53.129001617     8.421999931   0   0   0 # CT
     12     12   1  0.000000    39.283000946    53.167999268     9.788999557   0   0   0 # CT
     13     13   1  0.000000    42.608001709    52.680000305    11.454999924   0   0   0 # CT
     14     14   1  0.000000    41.625000000    52.830001831    10.444000244   0   0   0 # CT
     15     15   1  0.000000    40.265998840    53.019001007    10.800000191   0   0   0 # CT
     16     16   1  0.000000    39.888999939    53.057998657    12.166000366   0   0   0 # CT
     17     17   1  0.000000    43.215000153    52.569999695    13.831999779   0   0   0 # CT
     18     18   1  0.000000    42.231998444    52.719001770    12.821000099   0   0   0 # CT
     19     19   1  0.000000    40.872001648    52.908000946    13.177000046   0   0   0 # CT
     20     20   1  0.000000    40.495998383    52.946998596    14.543999672   0   0   0 # CT
     21     21   1  0.000000    43.821998596    52.458999634    16.209999084   0   0   0 # CT
     22     22   1  0.000000    42.839000702    52.609001160    15.199000359   0   0   0 # CT
     23     23   1  0.000000    41.479000092    52.798000336    15.553999901   0   0   0 # CT
     24     24   1  0.000000    41.102001190    52.837001801    16.920999527   0   0   0 # CT
     25     25   1  0.000000    44.428001404    52.348999023    18.586999893   0   0   0 # CT
     26     26   1  0.000000    43.444999695    52.499000549    17.576000214   0   0   0 # CT
     27     27   1  0.000000    42.085998535    52.687000275    17.931999207   0   0   0 # CT
     28     28   1  0.000000    41.708999634    52.727001190    19.298000336   0   0   0 # CT
     29     29   1  0.000000    45.034999847    52.238998413    20.964000702   0   0   0 # CT
     30     30   1  0.000000    44.051998138    52.388000488    19.952999115   0   0   0 # CT
     31     31   1  0.000000    42.692001343    52.576999664    20.309000015   0   0   0 # CT
     32     32   1  0.000000    42.316001892    52.616001129    21.676000595   0   0   0 # CT
     33     33   1  0.000000    45.641998291    52.127998352    23.341999054   0   0   0 # CT
     34     34   1  0.000000    44.658000946    52.277999878    22.330999374   0   0   0 # CT
     35     35   1  0.000000    43.298999786    52.466999054    22.687000275   0   0   0 # CT
     36     36   1  0.000000    42.922000885    52.506000519    24.052999496   0   0   0 # CT
     37     37   1  0.000000    46.248001099    52.018001556    25.718999863   0   0   0 # CT
     38     38   1  0.000000    45.264999390    52.166999817    24.708000183   0   0   0 # CT
     39     39   1  0.000000    43.904998779    52.355998993    25.063999176   0   0   0 # CT
     40     40   1  0.000000    43.528999329    52.395999908    26.430000305   0   0   0 # CT
     41     41   1  0.000000    46.854999542    51.907001495    28.096000671   0   0   0 # CT
     42     42   1  0.000000    45.872001648    52.056999207    27.086000443   0   0   0 # CT
     43     43   1  0.000000    44.512001038    52.245998383    27.440999985   0   0   0 # CT
     44     44   1  0.000000    44.136001587    52.284999847    28.808000565   0   0   0 # CT
     45     45   1  0.000000    47.462001801    51.797000885    30.475000381   0   0   0 # CT
     46     46   1  0.000000    46.479000092    51.946998596    29.464000702   0   0   0 # CT
     47     47   1  0.000000    45.118999481    52.136001587    29.819999695   0   0   0 # CT
     48     48   1  0.000000    44.742000580    52.174999237    31.186000824   0   0   0 # CT
     49     49   1  0.000000    48.068000793    51.687000275    32.852001190   0   0   0 # CT
     50     50   1  0.000000    47.084999084    51.835998535    31.840999603   0   0   0 # CT
     51     51   1  0.000000    45.726001740    52.025001526    32.196998596   0   0   0 # CT
     52     52   1  0.000000    45.348999023    52.063999176    33.562999725   0   0   0 # CT
     53     53   1  0.000000    48.674999237    51.576000214    35.229000092   0   0   0 # CT
     54     54   1  0.000000    47.692001343    51.726001740    34.219001770   0   0   0 # CT
     55     55   1  0.000000    46.332000732    51.915000916    34.574001312   0   0   0 # CT
     56     56   1  0.000000    45.956001282    51.953998566    35.941001892   0   0   0 # CT
     57     57   1  0.000000    49.282001495    51.465999603    37.606998444   0   0   0 # CT
     58     58   1  0.000000    48.298000336    51.616001129    36.596000671   0   0   0 # CT
     59     59   1  0.000000    46.938999176    51.804000854    36.951999664   0   0   0 # CT
     60     60   1  0.000000    46.562000275    51.844001770    38.318000793   0   0   0 # CT
     61     61   1  0.000000    49.888000488    51.355998993    39.984001160   0   0   0 # CT
     62     62   1  0.000000    48.904998779    51.505001068    38.972999573   0   0   0 # CT
     63     63   1  0.000000    47.544998169    51.694000244    39.328998566   0   0   0 # CT
     64     64   1  0.000000    47.168998718    51.733001709    40.694999695   0   0   0 # CT
     65     65   1  0.000000    50.494998932    51.244998932    42.361000061   0   0   0 # CT
     66     66   1  0.000000    49.512001038    51.395000458    41.351001740   0   0   0 # CT
     67     67   1  0.000000    48.152000427    51.583999634    41.706001282   0   0   0 # CT
     68     68   1  0.000000    47.776000977    51.623001099    43.073001862   0   0   0 # CT
     69     69   1  0.000000    51.101001740    51.134998322    44.738998413   0   0   0 # CT
     70     70   1  0.000000    50.118000031    51.284000397    43.728000641   0   0   0 # CT
     71     71   1  0.000000    48.758998871    51.472999573    44.083999634   0   0   0 # CT
     72     72   1  0.000000    48.381999969    51.513000488    45.450000763   0   0   0 # CT
     73     73   1  0.000000    51.708000183    51.023998260    47.116001129   0   0   0 # CT
     74     74   1  0.000000    50.724998474    51.173999786    46.104999542   0   0   0 # CT
     75     75   1  0.000000    49.365001678    51.362998962    46.460998535   0   0   0 # CT
     76     76   1  0.000000    48.988998413    51.402000427    47.826999664   0   0   0 # CT
     77     77   1  0.000000    52.314998627    50.914001465    49.493000031   0   0   0 # CT
     78     78   1  0.000000    51.332000732    51.063999176    48.483001709   0   0   0 # CT
     79     79   1  0.000000    49.972000122    51.252998352    48.838001251   0   0   0 # CT
     80     80   1  0.000000    49.595001221    51.291999817    50.205001831   0   0   0 # CT
     81     81   1  0.000000    52.921001434    50.804000854    51.870998383   0   0   0 # CT
     82     82   1  0.000000    51.937999725    50.952999115    50.860000610   0   0   0 # CT
     83     83   1  0.000000    50.578998566    51.141998291    51.215999603   0   0   0 # CT
     84     84   1  0.000000    50.201999664    51.181999207    52.582000732   0   0   0 # CT
     85     85   1  0.000000    53.527999878    50.693000793    54.248001099   0   0   0 # CT
     86     86   1  0.000000    52.544998169    50.842998505    53.236999512   0   0   0 # CT
     87     87   1  0.000000    51.185001373    51.032001495    53.592998505   0   0   0 # CT
     88     88   1  0.000000    50.808998108    51.070999146    54.958999634   0   0   0 # CT
     89     89   1  0.000000    54.134998322    50.583000183    56.625000000   0   0   0 # CT
     90     90   1  0.000000    53.151000977    50.733001709    55.615001678   0   0   0 # CT
     91     91   1  0.000000    51.791999817    50.922000885    55.970001221   0   0   0 # CT
     92     92   1  0.000000    51.415000916    50.960998535    57.337001801   0   0   0 # CT
     93     93   1  0.000000    54.741001129    50.472999573    59.002998352   0   0   0 # CT
     94     94   1  0.000000    53.757999420    50.622001648    57.992000580   0   0   0 # CT
     95     95   1  0.000000    52.397998810    50.811000824    58.347999573   0   0   0 # CT
     96     96   1  0.000000    52.021999359    50.849998474    59.714000702   0   0   0 # CT
     97     97   1  0.000000    55.347999573    50.361999512    61.380001068   0   0   0 # CT
     98     98   1  0.000000    54.365001678    50.512001038    60.368999481   0   0   0 # CT
     99     99   1  0.000000    53.005001068    50.701000214    60.724998474   0   0   0 # CT
    100    100   1  0.000000    52.629001617    50.740001678    62.091999054   0   0   0 # CT
    101    101   1  0.000000    36.709999084    53.577999115     5.389999866   0   0   0 # CT
    102    102   1  0.000000    35.727001190    53.728000641     4.379000187   0   0   0 # CT
    103    103   1  0.000000    34.367000580    53.916000366     4.735000134   0   0   0 # CT
    104    104   1  0.000000    33.991001129    53.956001282     6.100999832   0   0   0 # CT
    105    105   1  0.000000    37.316001892    53.467998505     7.767000198   0   0   0 # CT
    106    106   1  0.000000    36.333000183    53.617000580     6.756999969   0   0   0 # CT
    107    107   1  0.000000    34.973999023    53.805999756     7.111999989   0   0   0 # CT
    108    108   1  0.000000    34.597000122    53.845001221     8.479000092   0   0   0 # CT
    109    109   1  0.000000    37.923000336    53.356998444    10.145000458   0   0   0 # CT
    110    110   1  0.000000    36.939998627    53.506999969     9.133999825   0   0   0 # CT
    111    111   1  0.000000    35.580001831    53.695999146     9.489999771   0   0   0 # CT
    112    112   1  0.000000    35.203998566    53.735000610    10.855999947   0   0   0 # CT
    113    113   1  0.000000    38.529998779    53.247001648    12.522000313   0   0   0 # CT
    114    114   1  0.000000    37.546001434    53.395999908    11.510999680   0   0   0 # CT
    115    115   1  0.000000    36.187000275    53.584999084    11.866999626   0   0   0 # CT
    116    116   1  0.000000    35.810001373    53.625000000    13.232999802   0   0   0 # CT
    117    117   1  0.000000    39.136001587    53.136001587    14.899000168   0   0   0 # CT
    118    118   1  0.000000    38.152999878    53.285999298    13.888999939   0   0   0 # CT
    119    119   1  0.000000    36.793998718    53.474998474    14.244000435   0   0   0 # CT
    120    120   1  0.000000    36.416999817    53.513999939    15.611000061   0   0   0 # CT
    121    121   1  0.000000    39.743000031    53.026000977    17.277000427   0   0   0 # CT
    122    122   1  0.000000    38.759998322    53.175998688    16.266000748   0   0   0 # CT
    123    123   1  0.000000    37.400001526    53.365001678    16.621999741   0   0   0 # CT
    124    124   1  0.000000    37.023998260    53.403999329    17.988000870   0   0   0 # CT
    125    125   1  0.000000    40.348999023    52.916000366    19.653999329   0   0   0 # CT
    126    126   1  0.000000    39.366001129    53.064998627    18.642999649   0   0   0 # CT
    127    127   1  0.000000    38.006999969    53.254001617    18.999000549   0   0   0 # CT
    128    128   1  0.000000    37.630001068    53.293998718    20.364999771   0   0   0 # CT
    129    129   1  0.000000    40.956001282    52.805000305    22.031000137   0   0   0 # CT
    130    130   1  0.000000    39.972999573    52.955001831    21.020999908   0   0   0 # CT
    131    131   1  0.000000    38.612998962    53.144001007    21.375999451   0   0   0 # CT
    132    132   1  0.000000    38.236999512    53.182998657    22.743000031   0   0   0 # CT
    133    133   1  0.000000    41.562999725    52.694999695    24.409000397   0   0   0 # CT
    134    134   1  0.000000    40.580001831    52.845001221    23.398000717   0   0   0 # CT
    135    135   1  0.000000    39.220001221    53.034000397    23.753999710   0   0   0 # CT
    136    136   1  0.000000    38.844001770    53.073001862    25.120000839   0   0   0 # CT
    137    137   1  0.000000    42.168998718    52.584999084    26.785999298   0   0   0 # CT
    138    138   1  0.000000    41.186000824    52.734001160    25.774999619   0   0   0 # CT
    139    139   1  0.000000    39.826999664    52.923000336    26.131000519   0   0   0 # CT
    140    140   1  0.000000    39.450000763    52.962001801    27.496999741   0   0   0 # CT
    141    141   1  0.000000    42.776000977    52.473999023    29.163000107   0   0   0 # CT
    142    142   1  0.000000    41.792999268    52.624000549    28.152999878   0   0   0 # CT
    143    143   1  0.000000    40.432998657    52.812999725    28.507999420   0   0   0 # CT
    144    144   1  0.000000    40.056999207    52.852001190    29.875000000   0   0   0 # CT
    145    145   1  0.000000    43.382999420    52.363998413    31.541999817   0   0   0 # CT
    146    146   1  0.000000    42.400001526    52.513000488    30.531000137   0   0   0 # CT
    147    147   1  0.000000    41.040000916    52.701999664    30.886999130   0   0   0 # CT
    148    148   1  0.000000    40.664001465    52.742000580    32.252998352   0   0   0 # CT
    149    149   1  0.000000    43.988998413    52.252998352    33.918998718   0   0   0 # CT
    150    150   1  0.000000    43.006000519    52.402999878    32.908000946   0   0   0 # CT
    151    151   1  0.000000    41.646999359    52.591999054    33.263999939   0   0   0 # CT
    152    152   1  0.000000    41.270000458    52.631000519    34.630001068   0   0   0 # CT
    153    153   1  0.000000    44.596000671    52.143001556    36.296001434   0   0   0 # CT
    154    154   1  0.000000    43.612998962    52.292999268    35.285999298   0   0   0 # CT
    155    155   1  0.000000    42.252998352    52.481998444    35.640998840   0   0   0 # CT
    156    156   1  0.000000    41.876998901    52.520999908    37.007999420   0   0   0 # CT
    157    157   1  0.000000    45.202999115    52.033000946    38.673999786   0   0   0 # CT
    158    158   1  0.000000    44.220001221    52.181999207    37.662998199   0   0   0 # CT
    159    159   1  0.000000    42.860000610    52.370998383    38.019001007   0   0   0 # CT
    160    160   1  0.000000    42.484001160    52.410999298    39.384998322   0   0   0 # CT
    161    161   1  0.000000    45.808998108    51.922000885    41.050998688   0   0   0 # CT
    162    162   1  0.000000    44.826000214    52.071998596    40.040000916   0   0   0 # CT
    163    163   1  0.000000    43.466999054    52.261001587    40.395999908   0   0   0 # CT
    164    164   1  0.000000    43.090000153    52.299999237    41.763000488   0   0   0 # CT
    165    165   1  0.000000    46.416000366    51.812000275    43.428001404   0   0   0 # CT
    166    166   1  0.000000    45.432998657    51.962001801    42.417999268   0   0   0 # CT
    167    167   1  0.000000    44.073001862    52.151000977    42.772998810   0   0   0 # CT
    168    168   1  0.000000    43.696998596    52.189998627    44.139999390   0   0   0 # CT
    169    169   1  0.000000    47.022998810    51.701999664    45.805999756   0   0   0 # CT
    170    170   1  0.000000    46.039001465    51.851001740    44.794998169   0   0   0 # CT
    171    171   1  0.000000    44.680000305    52.040000916    45.151000977   0   0   0 # CT
    172    172   1  0.000000    44.303001404    52.078998566    46.516998291   0   0   0 # CT
    173    173   1  0.000000    47.629001617    51.590999603    48.182998657   0   0   0 # CT
    174    174   1  0.000000    46.645999908    51.741001129    47.172000885   0   0   0 # CT
    175    175   1  0.000000    45.285999298    51.930000305    47.527999878   0   0   0 # CT
    176    176   1  0.000000    44.909999847    51.969001770    48.895000458   0   0   0 # CT
    177    177   1  0.000000    48.236000061    51.480998993    50.560001373   0   0   0 # CT
    178    178   1  0.000000    47.252998352    51.630001068    49.549999237   0   0   0 # CT
    179    179   1  0.000000    45.893001556    51.819000244    49.904998779   0   0   0 # CT
    180    180   1  0.000000    45.516998291    51.859001160    51.271999359   0   0   0 # CT
    181    181   1  0.000000    48.841999054    51.369998932    52.937999725   0   0   0 # CT
    182    182   1  0.000000    47.859001160    51.520000458    51.926998138   0   0   0 # CT
    183    183   1  0.000000    46.500000000    51.708999634    52.283000946   0   0   0 # CT
    184    184   1  0.000000    46.123001099    51.748001099    53.648998260   0   0   0 # CT
    185    185   1  0.000000    49.449001312    51.259998322    55.314998627   0   0   0 # CT
    186    186   1  0.000000    48.465999603    51.409999847    54.304000854   0   0   0 # CT
    187    187   1  0.000000    47.105998993    51.598999023    54.659999847   0   0   0 # CT
    188    188   1  0.000000    46.729999542    51.638000488    56.027000427   0   0   0 # CT
    189    189   1  0.000000    50.055999756    51.150001526    57.693000793   0   0   0 # CT
    190    190   1  0.000000    49.073001862    51.298999786    56.681999207   0   0   0 # CT
    191    191   1  0.000000    47.713001251    51.487998962    57.036998749   0   0   0 # CT
    192    192   1  0.000000    47.337001801    51.527999878    58.403999329   0   0   0 # CT
    193    193   1  0.000000    50.661998749    51.039001465    60.069999695   0   0   0 # CT
    194    194   1  0.000000    49.679000854    51.188999176    59.058998108   0   0   0 # CT
    195    195   1  0.000000    48.319999695    51.377998352    59.415000916   0   0   0 # CT
    196    196   1  0.000000    47.943000793    51.416999817    60.780998230   0   0   0 # CT
    197    197   1  0.000000    51.269001007    50.929000854    62.446998596   0   0   0 # CT
    198    198   1  0.000000    50.285999298    51.078998566    61.436000824   0   0   0 # CT
    199    199   1  0.000000    48.925998688    51.268001556    61.791999817   0   0   0 # CT
    200    200   1  0.000000    48.549999237    51.306999207    63.159000397   0   0   0 # CT
    201    201   1  0.000000    32.631000519    54.145000458     6.456999779   0   0   0 # CT
    202    202   1  0.000000    31.648000717    54.293998718     5.446000099   0   0   0 # CT
    203    203   1  0.000000    30.288000107    54.483001709     5.802000046   0   0   0 # CT
    204    204   1  0.000000    29.912000656    54.522998810     7.168000221   0   0   0 # CT
    205    205   1  0.000000    33.237998962    54.034000397     8.833999634   0   0   0 # CT
    206    206   1  0.000000    32.254001617    54.183998108     7.823999882   0   0   0 # CT
    207    207   1  0.000000    30.895000458    54.373001099     8.178999901   0   0   0 # CT
    208    208   1  0.000000    30.517999649    54.411998749     9.545999527   0   0   0 # CT
    209    209   1  0.000000    33.844001770    53.923999786    11.211999893   0   0   0 # CT
    210    210   1  0.000000    32.861000061    54.074001312    10.201000214   0   0   0 # CT
    211    211   1  0.000000    31.500999451    54.262001038    10.557000160   0   0   0 # CT
    212    212   1  0.000000    31.125000000    54.301998138    11.923000336   0   0   0 # CT
    213    213   1  0.000000    34.451000214    53.813999176    13.588999748   0   0   0 # CT
    214    214   1  0.000000    33.467998505    53.963001251    12.578000069   0   0   0 # CT
    215    215   1  0.000000    32.108001709    54.152000427    12.934000015   0   0   0 # CT
    216    216   1  0.000000    31.732000351    54.191001892    14.300999641   0   0   0 # CT
    217    217   1  0.000000    35.056999207    53.702999115    15.965999603   0   0   0 # CT
    218    218   1  0.000000    34.074001312    53.853000641    14.956000328   0   0   0 # CT
    219    219   1  0.000000    32.715000153    54.041999817    15.310999870   0   0   0 # CT
    220    220   1  0.000000    32.338001251    54.081001282    16.677999496   0   0   0 # CT
    221    221   1  0.000000    35.664001465    53.592998505    18.343999863   0   0   0 # CT
    222    222   1  0.000000    34.680999756    53.742000580    17.333000183   0   0   0 # CT
    223    223   1  0.000000    33.320999146    53.930999756    17.688999176   0   0   0 # CT
    224    224   1  0.000000    32.944999695    53.971000671    19.055000305   0   0   0 # CT
    225    225   1  0.000000    36.270999908    53.481998444    20.721000671   0   0   0 # CT
    226    226   1  0.000000    35.287998199    53.631999969    19.709999084   0   0   0 # CT
    227    227   1  0.000000    33.928001404    53.820999146    20.065999985   0   0   0 # CT
    228    228   1  0.000000    33.550998688    53.860000610    21.433000565   0   0   0 # CT
    229    229   1  0.000000    36.876998901    53.372001648    23.097999573   0   0   0 # CT
    230    230   1  0.000000    35.894001007    53.521999359    22.087999344   0   0   0 # CT
    231    231   1  0.000000    34.534999847    53.710998535    22.443000793   0   0   0 # CT
    232    232   1  0.000000    34.158000946    53.750000000    23.809999466   0   0   0 # CT
    233    233   1  0.000000    37.484001160    53.262001038    25.475999832   0   0   0 # CT
    234    234   1  0.000000    36.500999451    53.410999298    24.465000153   0   0   0 # CT
    235    235   1  0.000000    35.140998840    53.599998474    24.820999146   0   0   0 # CT
    236    236   1  0.000000    34.764999390    53.639999390    26.187000275   0   0   0 # CT
    237    237   1  0.000000    38.090999603    53.151000977    27.853000641   0   0   0 # CT
    238    238   1  0.000000    37.106998444    53.300998688    26.841999054   0   0   0 # CT
    239    239   1  0.000000    35.748001099    53.490001678    27.197999954   0   0   0 # CT
    240    240   1  0.000000    35.370998383    53.528999329    28.565000534   0   0   0 # CT
    241    241   1  0.000000    38.696998596    53.041000366    30.231000900   0   0   0 # CT
    242    242   1  0.000000    37.714000702    53.191001892    29.219999313   0   0   0 # CT
    243    243   1  0.000000    36.354000092    53.380001068    29.575000763   0   0   0 # CT
    244    244   1  0.000000    35.978000641    53.418998718    30.941999435   0   0   0 # CT
    245    245   1  0.000000    39.304000854    52.930999756    32.609001160   0   0   0 # CT
    246    246   1  0.000000    38.320999146    53.080001831    31.597999573   0   0   0 # CT
    247    247   1  0.000000    36.960998535    53.269001007    31.954000473   0   0   0 # CT
    248    248   1  0.000000    36.584999084    53.307998657    33.319999695   0   0   0 # CT
    249    249   1  0.000000    39.910999298    52.819999695    34.986000061   0   0   0 # CT
    250    250   1  0.000000    38.928001404    52.970001221    33.974998474   0   0   0 # CT
    251    251   1  0.000000    37.568000793    53.159000397    34.331001282   0   0   0 # CT
    252    252   1  0.000000    37.191001892    53.198001862    35.698001862   0   0   0 # CT
    253    253   1  0.000000    40.516998291    52.709999084    37.363998413   0   0   0 # CT
    254    254   1  0.000000    39.534000397    52.859001160    36.353000641   0   0   0 # CT
    255    255   1  0.000000    38.174999237    53.048000336    36.708000183   0   0   0 # CT
    256    256   1  0.000000    37.798000336    53.088001251    38.075000763   0   0   0 # CT
    257    257   1  0.000000    41.124000549    52.598999023    39.741001129   0   0   0 # CT
    258    258   1  0.000000    40.140998840    52.749000549    38.729999542   0   0   0 # CT
    259    259   1  0.000000    38.780998230    52.937999725    39.085998535   0   0   0 # CT
    260    260   1  0.000000    38.404998779    52.977001190    40.451999664   0   0   0 # CT
    261    261   1  0.000000    41.730998993    52.488998413    42.118000031   0   0   0 # CT
    262    262   1  0.000000    40.747001648    52.638999939    41.106998444   0   0   0 # CT
    263    263   1  0.000000    39.388000488    52.827999115    41.463001251   0   0   0 # CT
    264    264   1  0.000000    39.011001587    52.867000580    42.830001831   0   0   0 # CT
    265    265   1  0.000000    42.337001801    52.379001617    44.495998383   0   0   0 # CT
    266    266   1  0.000000    41.354000092    52.527999878    43.485000610   0   0   0 # CT
    267    267   1  0.000000    39.993999481    52.716999054    43.840000153   0   0   0 # CT
    268    268   1  0.000000    39.618000031    52.756999969    45.207000732   0   0   0 # CT
    269    269   1  0.000000    42.944000244    52.268001556    46.873001099   0   0   0 # CT
    270    270   1  0.000000    41.960998535    52.417999268    45.861999512   0   0   0 # CT
    271    271   1  0.000000    40.601001740    52.606998444    46.217998505   0   0   0 # CT
    272    272   1  0.000000    40.224998474    52.645999908    47.583999634   0   0   0 # CT
    273    273   1  0.000000    43.549999237    52.158000946    49.250000000   0   0   0 # CT
    274    274   1  0.000000    42.567001343    52.307998657    48.238998413   0   0   0 # CT
    275    275   1  0.000000    41.208000183    52.497001648    48.595001221   0   0   0 # CT
    276    276   1  0.000000    40.831001282    52.535999298    49.962001801   0   0   0 # CT
    277    277   1  0.000000    44.157001495    52.048000336    51.627998352   0   0   0 # CT
    278    278   1  0.000000    43.173999786    52.196998596    50.617000580   0   0   0 # CT
    279    279   1  0.000000    41.813999176    52.386001587    50.972000122   0   0   0 # CT
    280    280   1  0.000000    41.437999725    52.424999237    52.339000702   0   0   0 # CT
    281    281   1  0.000000    44.763999939    51.937000275    54.005001068   0   0   0 # CT
    282    282   1  0.000000    43.780998230    52.087001801    52.993999481   0   0   0 # CT
    283    283   1  0.000000    42.421001434    52.276000977    53.349998474   0   0   0 # CT
    284    284   1  0.000000    42.043998718    52.314998627    54.715999603   0   0   0 # CT
    285    285   1  0.000000    45.369998932    51.826999664    56.381999969   0   0   0 # CT
    286    286   1  0.000000    44.387001038    51.977001190    55.370998383   0   0   0 # CT
    287    287   1  0.000000    43.027999878    52.165000916    55.727001190   0   0   0 # CT
    288    288   1  0.000000    42.651000977    52.205001831    57.094001770   0   0   0 # CT
    289    289   1  0.000000    45.977001190    51.716999054    58.759998322   0   0   0 # CT
    290    290   1  0.000000    44.993999481    51.866001129    57.749000549   0   0   0 # CT
    291    291   1  0.000000    43.633998871    52.055000305    58.104000092   0   0   0 # CT
    292    292   1  0.000000    43.257999420    52.094001770    59.471000671   0   0   0 # CT
    293    293   1  0.000000    46.583999634    51.605998993    61.137001038   0   0   0 # CT
    294    294   1  0.000000    45.599998474    51.756000519    60.125999451   0   0   0 # CT
    295    295   1  0.000000    44.241001129    51.944999695    60.481998444   0   0   0 # CT
    296    296   1  0.000000    43.863998413    51.984001160    61.847999573   0   0   0 # CT
    297    297   1  0.000000    47.189998627    51.495998383    63.513999939   0   0   0 # CT
    298    298   1  0.000000    46.207000732    51.645000458    62.502998352   0   0   0 # CT
    299    299   1  0.000000    44.847000122    51.833999634    62.859001160   0   0   0 # CT
    300    300   1  0.000000    44.471000671    51.874000549    64.225997925   0   0   0 # CT
    301    301   1  0.000000    28.552000046    54.710998535     7.524000168   0   0   0 # CT
    302    302   1  0.000000    27.569000244    54.861000061     6.513000011   0   0   0 # CT
    303    303   1  0.000000    26.208999634    55.049999237     6.868999958   0   0   0 # CT
    304    304   1  0.000000    25.833000183    55.089000702     8.236000061   0   0   0 # CT
    305    305   1  0.000000    29.159000397    54.601001740     9.902000427   0   0   0 # CT
    306    306   1  0.000000    28.176000595    54.750999451     8.890999794   0   0   0 # CT
    307    307   1  0.000000    26.815999985    54.939998627     9.246000290   0   0   0 # CT
    308    308   1  0.000000    26.440000534    54.979000092    10.612999916   0   0   0 # CT
    309    309   1  0.000000    29.764999390    54.491001129    12.279000282   0   0   0 # CT
    310    310   1  0.000000    28.781999588    54.639999390    11.267999649   0   0   0 # CT
    311    311   1  0.000000    27.423000336    54.828998566    11.623999596   0   0   0 # CT