LAMMPS data file via write_data, version 8 Feb 2019, timestep = 3

74 atoms
3 atom types
73 bonds
4 bond types
144 angles
7 angle types
207 dihedrals
7 dihedral types
96 impropers
6 improper types

9.0239997864000003e+01 1.2050099945100000e+02 xlo xhi
-5.4100000100000001e-01 1.0112999916000000e+01 ylo yhi
1.4200002000000000e-01 6.7979998589999999e+00 zlo zhi

Masses

1 12.0112
2 12.0112
3 1.00797

Pair Coeffs # lj/class2/coul/cut/omp

1 0.054 4.01
2 0.054 4.01
3 0.02 2.995

Bond Coeffs # class2/omp

1 1.101 345 -691.89 844.6
2 1.53 299.67 -501.77 679.81
3 1.53 299.67 -501.77 679.81
4 1.101 345 -691.89 844.6

Angle Coeffs # class2/omp

1 107.66 39.641 -12.921 -2.4318
2 110.77 41.453 -10.604 5.129
3 112.67 39.516 -7.443 -9.5583
4 112.67 39.516 -7.443 -9.5583
5 110.77 41.453 -10.604 5.129
6 110.77 41.453 -10.604 5.129
7 107.66 39.641 -12.921 -2.4318

BondBond Coeffs

1 5.3316 1.101 1.101
2 3.3872 1.53 1.101
3 0 1.53 1.53
4 0 1.53 1.53
5 3.3872 1.53 1.101
6 3.3872 1.53 1.101
7 5.3316 1.101 1.101

BondAngle Coeffs

1 18.103 18.103 1.101 1.101
2 20.754 11.421 1.53 1.101
3 8.016 8.016 1.53 1.53
4 8.016 8.016 1.53 1.53
5 20.754 11.421 1.53 1.101
6 20.754 11.421 1.53 1.101
7 18.103 18.103 1.101 1.101

Dihedral Coeffs # class2/omp

1 -0.1432 0 0.0617 0 -0.1083 0
2 0 0 0.0316 0 -0.1681 0
3 0 0 0.0514 0 -0.143 0
4 0 0 0.0514 0 -0.143 0
5 0 0 0.0316 0 -0.1681 0
6 0 0 0.0316 0 -0.1681 0
7 -0.1432 0 0.0617 0 -0.1083 0

AngleAngleTorsion Coeffs

1 -12.564 110.77 110.77
2 -16.164 112.67 110.77
3 -22.045 112.67 112.67
4 -22.045 112.67 112.67
5 -16.164 112.67 110.77
6 -16.164 112.67 110.77
7 -12.564 110.77 110.77

EndBondTorsion Coeffs

1 0.213 0.312 0.0777 0.213 0.312 0.0777 1.101 1.101
2 0.2486 0.2422 -0.0925 0.0814 0.0591 0.2219 1.53 1.101
3 -0.0732 0 0 -0.0732 0 0 1.53 1.53
4 -0.0732 0 0 -0.0732 0 0 1.53 1.53
5 0.2486 0.2422 -0.0925 0.0814 0.0591 0.2219 1.53 1.101
6 0.2486 0.2422 -0.0925 0.0814 0.0591 0.2219 1.53 1.101
7 0.213 0.312 0.0777 0.213 0.312 0.0777 1.101 1.101

MiddleBondTorsion Coeffs

1 -14.261 -0.5322 -0.4864 1.53
2 -14.879 -3.6581 -0.3138 1.53
3 -17.787 -7.1877 0 1.53
4 -17.787 -7.1877 0 1.53
5 -14.879 -3.6581 -0.3138 1.53
6 -14.879 -3.6581 -0.3138 1.53
7 -14.261 -0.5322 -0.4864 1.53

BondBond13 Coeffs

1 0 1.101 1.101
2 0 1.53 1.101
3 0 1.53 1.53
4 0 1.53 1.53
5 0 1.53 1.101
6 0 1.53 1.101
7 0 1.101 1.101

AngleTorsion Coeffs

1 -0.8085 0.5569 -0.2466 -0.8085 0.5569 -0.2466 110.77 110.77
2 -0.2454 0 -0.1136 0.3113 0.4516 -0.1988 112.67 110.77
3 0.3886 -0.3139 0.1389 0.3886 -0.3139 0.1389 112.67 112.67
4 0.3886 -0.3139 0.1389 0.3886 -0.3139 0.1389 112.67 112.67
5 -0.2454 0 -0.1136 0.3113 0.4516 -0.1988 112.67 110.77
6 -0.2454 0 -0.1136 0.3113 0.4516 -0.1988 112.67 110.77
7 -0.8085 0.5569 -0.2466 -0.8085 0.5569 -0.2466 110.77 110.77

Improper Coeffs # class2/omp

1 0 0
2 0 0
3 0 0
4 0 0
5 0 0
6 0 0

AngleAngle Coeffs

1 0.2738 -0.4825 0.2738 110.77 107.66 110.77
2 -1.3199 -1.3199 0.1184 112.67 110.77 110.77
3 -1.3199 -1.3199 0.1184 112.67 110.77 110.77
4 0.2738 -0.4825 0.2738 110.77 107.66 110.77
5 0.2738 -0.4825 0.2738 110.77 107.66 110.77
6 -0.3157 -0.3157 -0.3157 107.66 107.66 107.66

Atoms # full

18 1 1 0.0000000000000000e+00 9.5257258888900111e+01 7.7165074378665484e+00 1.6507602622783668e+00 0 0 0
20 1 1 0.0000000000000000e+00 9.3931269999101602e+01 8.0580071659178696e+00 2.3243717332963700e+00 0 0 0
22 1 1 0.0000000000000000e+00 9.2828170959555010e+01 8.4147145597467379e+00 1.3305383170705647e+00 0 0 0
24 1 2 0.0000000000000000e+00 9.1507501777927601e+01 8.7543738543667597e+00 2.0157023646893215e+00 0 0 0
56 1 3 0.0000000000000000e+00 9.6022093080676783e+01 6.5041903268969588e+00 3.2700921023882499e+00 0 0 0
59 1 3 0.0000000000000000e+00 9.5115661610483869e+01 6.8671860279891925e+00 9.6166700541518269e-01 0 0 0
60 1 3 0.0000000000000000e+00 9.5594825777733988e+01 8.5717197328457626e+00 1.0416899452471995e+00 0 0 0
63 1 3 0.0000000000000000e+00 9.4088777940915023e+01 8.9025758656558356e+00 3.0157499634295144e+00 0 0 0
64 1 3 0.0000000000000000e+00 9.3609332007178082e+01 7.1989675279438883e+00 2.9363969202648637e+00 0 0 0
67 1 3 0.0000000000000000e+00 9.3146144494515681e+01 9.2746656482921157e+00 7.1919154564523247e-01 0 0 0
68 1 3 0.0000000000000000e+00 9.2666519470587957e+01 7.5712970268602886e+00 6.3991520103330091e-01 0 0 0
72 1 3 0.0000000000000000e+00 9.0731709591026686e+01 9.0074581558877487e+00 1.2732079182285030e+00 0 0 0
73 1 3 0.0000000000000000e+00 9.1143526110446459e+01 7.9004950028784666e+00 2.6103262100155518e+00 0 0 0
74 1 3 0.0000000000000000e+00 9.1626311028098186e+01 9.6177061618066393e+00 2.6907311181596101e+00 0 0 0
8 1 1 0.0000000000000000e+00 1.0113869150030719e+02 5.9835419835757415e+00 3.3212784369853483e+00 0 0 0
10 1 1 0.0000000000000000e+00 1.0006218178477978e+02 6.3334541356953693e+00 2.3116373234967496e+00 0 0 0
12 1 1 0.0000000000000000e+00 9.8747753200483331e+01 6.6714609954585402e+00 2.9922854297479651e+00 0 0 0
14 1 1 0.0000000000000000e+00 9.7666727856319326e+01 7.0230116356419234e+00 1.9832063541572289e+00 0 0 0
16 1 1 0.0000000000000000e+00 9.6345635680865598e+01 7.3630900605567122e+00 2.6583998172606353e+00 0 0 0
36 1 3 0.0000000000000000e+00 1.0230166996452328e+02 4.7983079517952403e+00 1.9491146657853144e+00 0 0 0
39 1 3 0.0000000000000000e+00 1.0081032532615515e+02 5.1252332777068395e+00 3.9310353881207165e+00 0 0 0
40 1 3 0.0000000000000000e+00 1.0129045422040068e+02 6.8308034487783686e+00 4.0108465745256483e+00 0 0 0
43 1 3 0.0000000000000000e+00 9.9916444913479609e+01 5.4845154174826218e+00 1.6229981757364009e+00 0 0 0
44 1 3 0.0000000000000000e+00 1.0039589256148695e+02 7.1900483573930156e+00 1.7026035050119430e+00 0 0 0
47 1 3 0.0000000000000000e+00 9.8901126830218246e+01 7.5178800682550619e+00 3.6826130010020011e+00 0 0 0
48 1 3 0.0000000000000000e+00 9.8421264341147150e+01 5.8126460877588260e+00 3.6025361944187555e+00 0 0 0
51 1 3 0.0000000000000000e+00 9.7523973452708034e+01 6.1734510169277730e+00 1.2944309743038607e+00 0 0 0
52 1 3 0.0000000000000000e+00 9.8003179553230410e+01 7.8789841516767423e+00 1.3744280451907569e+00 0 0 0
55 1 3 0.0000000000000000e+00 9.6501347796703797e+01 8.2087283275661171e+00 3.3492315423432255e+00 0 0 0
1 1 1 0.0000000000000000e+00 1.0590714744302289e+02 4.6116462555088447e+00 3.9749471687941873e+00 0 0 0
2 1 1 0.0000000000000000e+00 1.0483330988654070e+02 4.9611370674672015e+00 2.9648659181884782e+00 0 0 0
3 1 1 0.0000000000000000e+00 1.0721669143630463e+02 4.2747840501002123e+00 3.2912636827265853e+00 0 0 0
4 1 1 0.0000000000000000e+00 1.0352370675836337e+02 5.2972627161846653e+00 3.6485266942227161e+00 0 0 0
5 1 1 0.0000000000000000e+00 1.0829070502481572e+02 3.9253092870189499e+00 4.3015642100775136e+00 0 0 0
6 1 1 0.0000000000000000e+00 1.0244966004654782e+02 5.6466371934059243e+00 2.6382449759508670e+00 0 0 0
25 1 3 0.0000000000000000e+00 1.0557633409972260e+02 3.7538034838043859e+00 4.5841013819439329e+00 0 0 0
26 1 3 0.0000000000000000e+00 1.0605685734633268e+02 5.4594834901767637e+00 4.6642284463900703e+00 0 0 0
27 1 3 0.0000000000000000e+00 1.0516389030090858e+02 5.8190653501208471e+00 2.3557644028163596e+00 0 0 0
28 1 3 0.0000000000000000e+00 1.0468419928007688e+02 4.1129856501495441e+00 2.2758737838195002e+00 0 0 0
29 1 3 0.0000000000000000e+00 1.0706613397021911e+02 3.4271341227455192e+00 2.6021407400376835e+00 0 0 0
30 1 3 0.0000000000000000e+00 1.0754653838435846e+02 5.1327283138410635e+00 2.6820447489272463e+00 0 0 0
31 1 3 0.0000000000000000e+00 1.0367381294806157e+02 6.1448483476713562e+00 4.3376255532116490e+00 0 0 0
32 1 3 0.0000000000000000e+00 1.0319427829358540e+02 4.4392675997247393e+00 4.2576574490172776e+00 0 0 0
34 1 3 0.0000000000000000e+00 1.0795879699468725e+02 3.0680554512144314e+00 4.9108404977461539e+00 0 0 0
35 1 3 0.0000000000000000e+00 1.0278121265649925e+02 6.5040677270638350e+00 2.0288564911402167e+00 0 0 0
7 1 1 0.0000000000000000e+00 1.0960157077216965e+02 3.5885153429764087e+00 3.6184713455525008e+00 0 0 0
9 1 1 0.0000000000000000e+00 1.1067808900708390e+02 3.2385218596761720e+00 4.6280125716520493e+00 0 0 0
11 1 1 0.0000000000000000e+00 1.1199246957622799e+02 2.9005903050067716e+00 3.9473571640196803e+00 0 0 0
13 1 1 0.0000000000000000e+00 1.1307359126177356e+02 2.5491124957020586e+00 4.9563429238962255e+00 0 0 0
15 1 1 0.0000000000000000e+00 1.1439461283159206e+02 2.2090915125129991e+00 4.2810563638777683e+00 0 0 0
33 1 3 0.0000000000000000e+00 1.0843896334519658e+02 4.7735267259928946e+00 4.9905937405245018e+00 0 0 0
37 1 3 0.0000000000000000e+00 1.0992976510011415e+02 4.4468924586941991e+00 3.0087671781675991e+00 0 0 0
38 1 3 0.0000000000000000e+00 1.0945027982031554e+02 2.7410488262473103e+00 2.9290271068078293e+00 0 0 0
41 1 3 0.0000000000000000e+00 1.1082434094067037e+02 4.0875571037873994e+00 5.3164137605262702e+00 0 0 0
42 1 3 0.0000000000000000e+00 1.1034412772025723e+02 2.3818468267658184e+00 5.2368082741701860e+00 0 0 0
45 1 3 0.0000000000000000e+00 1.1231874721112096e+02 3.7594440127425250e+00 3.3370820592238628e+00 0 0 0
46 1 3 0.0000000000000000e+00 1.1183890633380281e+02 2.0540249068885430e+00 3.2571926163980622e+00 0 0 0
49 1 3 0.0000000000000000e+00 1.1321685698001160e+02 3.3983472651128004e+00 5.6452025952768743e+00 0 0 0
50 1 3 0.0000000000000000e+00 1.1273714332925498e+02 1.6932358355362334e+00 5.5650831750142737e+00 0 0 0
54 1 3 0.0000000000000000e+00 1.1423885960128879e+02 1.3636438574817831e+00 3.5899067895008088e+00 0 0 0
17 1 1 0.0000000000000000e+00 1.1548306236527789e+02 1.8556750144774730e+00 5.2888178753193804e+00 0 0 0
19 1 1 0.0000000000000000e+00 1.1680903211353336e+02 1.5141051174609299e+00 4.6152779011948466e+00 0 0 0
21 1 1 0.0000000000000000e+00 1.1791222642438535e+02 1.1572914932879192e+00 5.6090381859009515e+00 0 0 0
23 1 2 0.0000000000000000e+00 1.1923289866181673e+02 8.1771548892435431e-01 4.9237124289761871e+00 0 0 0
53 1 3 0.0000000000000000e+00 1.1471864790779644e+02 3.0682588247920450e+00 3.6698273699136874e+00 0 0 0
57 1 3 0.0000000000000000e+00 1.1562500871124135e+02 2.7051725875665493e+00 5.9776773889704504e+00 0 0 0
58 1 3 0.0000000000000000e+00 1.1514516647403786e+02 1.0007155495298399e+00 5.8980820264288312e+00 0 0 0
61 1 3 0.0000000000000000e+00 1.1713060863819638e+02 2.3733508061104489e+00 4.0034827979570986e+00 0 0 0
62 1 3 0.0000000000000000e+00 1.1665141472794585e+02 6.6983444411216519e-01 3.9237465119422770e+00 0 0 0
65 1 3 0.0000000000000000e+00 1.1759465390279384e+02 2.9705444994259472e-01 6.2201587348664953e+00 0 0 0
66 1 3 0.0000000000000000e+00 1.1807344309456074e+02 2.0006455791228226e+00 6.3000296083835927e+00 0 0 0
69 1 3 0.0000000000000000e+00 1.2000911233992083e+02 5.6457500305271657e-01 5.6657855151609242e+00 0 0 0
70 1 3 0.0000000000000000e+00 1.1959657278613740e+02 1.6714578137392673e+00 4.3288519793063172e+00 0 0 0
71 1 3 0.0000000000000000e+00 1.1911377917347333e+02 -4.5488718665024977e-02 4.2486616838116431e+00 0 0 0

Velocities

18 -6.6537028647103871e-04 1.6928343134163598e-03 -1.0931456501028581e-03
20 -1.8194965247650084e-03 -4.8250561496069986e-04 4.5587247787233082e-03
22 6.0357704509360500e-03 5.2094169351475754e-03 -4.8749316964670506e-03
24 -3.9336387922964617e-03 1.2126500234641846e-03 -2.1205573957152083e-03
56 8.5285889781712837e-03 1.2758487661131355e-02 2.5274883769742847e-02
59 2.0206180350182103e-02 -2.6647285833516016e-02 1.3996436234126646e-02
60 1.2714824414230410e-02 1.9166756373971344e-02 -1.9194196696184565e-02
63 9.5031151429556351e-04 2.3358885757474031e-02 -2.3393774507637594e-02
64 -1.0233588783326685e-02 2.5506534669044185e-02 -8.4400952830308018e-03
67 8.1718495029599620e-03 -6.0874163625724799e-03 1.6784069875840828e-03
68 -1.9145191535651297e-02 -9.3726369915915378e-04 -2.2134822987815859e-02
72 1.9678280363400382e-02 -1.6001245800539472e-02 1.9593569108120202e-02
73 -1.0920359108731108e-02 -1.9630975302495513e-03 9.2948181851985109e-03
74 7.9972566686069783e-03 2.0551189291318380e-02 -5.2345100692049898e-04
8 2.9066207002257554e-03 7.8465699957861717e-03 -5.6934518699565796e-04
10 5.7761369303661516e-03 -6.0420960435770407e-03 -1.6450049507754924e-03
12 3.1220384148449856e-04 6.9966206516302787e-03 -5.3185145744338025e-03
14 1.0673983961296445e-04 7.4404481346693500e-04 8.4517216154762710e-04
16 -1.2227588083007115e-03 5.6396766495804959e-03 -1.0405155799660111e-03
36 -1.6576742817979322e-02 1.2850088742489487e-02 -2.5363349364584207e-02
39 -2.0540128782442619e-02 2.3180568058030510e-02 -4.5252658263580164e-03
40 9.4433936452046167e-03 -2.0392153277694468e-02 2.7786073758800836e-02
43 -2.5702708863711139e-02 2.6273179536602429e-03 9.3770362088562084e-03
44 1.8992815179614958e-02 -2.1535362809306055e-02 5.6621874176326905e-03
47 2.4760069104166896e-02 1.7534709590520395e-02 2.2684526526199924e-02
48 1.1277024421031708e-02 -1.9105063487762211e-02 5.8848450846786255e-04
51 -1.9233030298185471e-03 -1.9815425510583202e-02 1.5282878662172409e-02
52 -2.5362976062487406e-02 9.8106052886917147e-03 -4.9434742698686186e-03
55 -7.8936090459469695e-03 -1.7058232974470237e-02 2.0932372600462146e-02
1 6.1676876178350896e-04 -4.9403577455569411e-03 -6.2950228324417205e-03
2 4.1360193463022710e-03 4.3488975284724065e-03 3.3413136541845931e-03
3 1.5949939641735557e-03 -4.5786680115019835e-03 4.6671706938126514e-03
4 -9.6632982846148663e-04 -5.1981171821708985e-03 -1.9335113886545039e-03
5 1.4701087931092864e-04 -5.4628898561947048e-03 -4.2505487174632492e-03
6 -8.8883386278870435e-03 -4.8058426976770752e-03 -1.1286698601021058e-03
25 8.8814673136741427e-03 2.1543927208764121e-02 1.4974703840077265e-02
26 4.3452963793362649e-03 9.7677356968233734e-04 1.4535140395366387e-02
27 1.9153412684755490e-02 -9.2249135160196085e-03 1.9793350200323512e-02
28 1.9441106987348974e-03 1.8600443616229180e-03 -2.6823318566037276e-04
29 -6.0135257376959671e-04 -9.4469053792976074e-03 1.7468425169638549e-02
30 2.3364780740217785e-02 -1.9082395327286943e-02 -2.2637166127997600e-03
31 1.9539577238330091e-02 1.0664887121900677e-02 -1.3460881815853233e-02
32 1.8078802983828003e-02 2.4934342367364595e-02 2.5456956719661087e-02
34 -1.9587623028686916e-02 2.0501275016466196e-02 -1.6927009385224265e-02
35 -3.7265938208115210e-03 -4.6817856309369060e-03 -7.2151568047770188e-03
7 -6.6497592079914902e-03 4.0179155773610795e-03 1.7428006273395035e-04
9 6.0595883396440571e-03 -7.4856477983757507e-03 8.4093190889445966e-03
11 4.2398016985062265e-03 1.3013822745510787e-03 -3.9598481247142374e-03
13 -8.4742705251364750e-03 -3.0638655021208048e-03 7.7143204953202546e-04
15 4.4984173881970483e-04 1.1098859200171054e-03 2.1559600900461630e-03
33 -1.1427276102781334e-03 -5.9411836882362970e-03 -8.1060126312270352e-03
37 6.6829954255274810e-03 -2.5085860274814752e-02 -8.4715780647170516e-03
38 -2.2270276029858396e-02 6.4624009440375271e-03 -1.8826815008273042e-02
41 -6.9420221564222232e-03 1.9652833458366735e-02 -1.9919519282077251e-02
42 -1.6327806217374317e-02 -2.5468181409232668e-02 -1.8598743540300784e-02
45 -1.5708151383870179e-02 2.5499301109167646e-02 -2.0347114919785969e-02
46 -1.9711600043288431e-02 2.0500593566774764e-02 2.6453576255032196e-02
49 -2.3012956253692839e-02 2.6321896706286079e-02 -1.3077986397674454e-02
50 -1.6975754975864538e-02 -3.6345551272622240e-03 -8.0331854786542811e-03
54 5.1316645553307746e-03 2.5424519076067222e-03 8.7098758954467070e-03
17 -2.3183030820976961e-03 3.1997272743955626e-03 5.0376773382183751e-03
19 2.6715671257660583e-03 -3.2921089578251826e-03 8.7821912668112467e-03
21 3.1242071355484175e-03 -4.5449799024182176e-03 -9.8614643394614684e-04
23 -3.1033096450156115e-03 -6.1007369687002171e-03 -2.3713467483872891e-03
53 -6.7095910542546453e-04 2.7017750372046893e-02 2.5542153589772497e-03
57 9.4449969465975493e-03 6.5545332334060250e-03 -5.7033245082810328e-03
58 4.7806546656151833e-03 2.5159980706548766e-02 -2.0599218903050723e-02
61 1.0851407582231753e-03 -1.3581856925696443e-02 -4.3508796892192192e-03
62 -2.0669172087477133e-02 -7.1355460948811251e-03 -1.2616899989530453e-02
65 1.3357440333526810e-02 1.7371522969775038e-02 2.1692521866802334e-02
66 8.1027375891837682e-03 -1.6143428511708399e-02 -1.2221701529300098e-02
69 -1.6847688343892726e-02 1.0266614860887037e-02 -1.7510078965021447e-02
70 1.1857176672007122e-02 2.5947041720370281e-02 -7.3890152065207880e-03
71 2.2405471698945790e-02 -2.1078534363774246e-02 6.8583868888570957e-03

Bonds

1 1 18 60
2 1 18 59
3 2 18 20
4 1 20 64
5 1 20 63
6 2 20 22
7 1 22 68
8 1 22 67
9 3 22 24
10 4 24 73
11 4 24 74
12 4 24 72
13 2 8 10
14 1 8 40
15 1 8 39
16 2 10 12
17 1 10 44
18 1 10 43
19 2 12 14
20 1 12 47
21 1 12 48
22 2 14 16
23 1 14 52
24 1 14 51
25 1 16 55
26 1 16 56
27 2 16 18
28 1 1 25
29 1 1 26
30 2 1 2
31 2 1 3
32 1 2 28
33 1 2 27
34 2 2 4
35 1 3 30
36 1 3 29
37 2 3 5
38 1 4 32
39 1 4 31
40 2 4 6
41 2 5 7
42 1 5 33
43 1 5 34
44 2 6 8
45 1 6 35
46 1 6 36
47 2 7 9
48 1 7 37
49 1 7 38
50 1 9 42
51 2 9 11
52 1 9 41
53 2 11 13
54 1 11 45
55 1 11 46
56 2 13 15
57 1 13 49
58 1 13 50
59 1 15 53
60 2 15 17
61 1 15 54
62 2 17 19
63 1 17 57
64 1 17 58
65 1 19 62
66 1 19 61
67 2 19 21
68 1 21 65
69 1 21 66
70 3 21 23
71 4 23 70
72 4 23 71
73 4 23 69

Angles

1 2 16 18 60
2 2 16 18 59
3 3 16 18 20
4 1 60 18 59
5 2 20 18 60
6 2 20 18 59
7 2 18 20 64
8 2 18 20 63
9 3 18 20 22
10 1 64 20 63
11 2 22 20 64
12 2 22 20 63
13 2 20 22 68
14 2 20 22 67
15 4 20 22 24
16 1 68 22 67
17 5 24 22 68
18 5 24 22 67
19 6 22 24 73
20 6 22 24 74
21 6 22 24 72
22 7 73 24 74
23 7 73 24 72
24 7 74 24 72
25 3 6 8 10
26 2 6 8 40
27 2 6 8 39
28 2 10 8 40
29 2 10 8 39
30 1 40 8 39
31 3 8 10 12
32 2 8 10 44
33 2 8 10 43
34 2 12 10 44
35 2 12 10 43
36 1 44 10 43
37 3 10 12 14
38 2 10 12 47
39 2 10 12 48
40 2 14 12 47
41 2 14 12 48
42 1 47 12 48
43 3 12 14 16
44 2 12 14 52
45 2 12 14 51
46 2 16 14 52
47 2 16 14 51
48 1 52 14 51
49 2 14 16 55
50 2 14 16 56
51 3 14 16 18
52 1 55 16 56
53 2 18 16 55
54 2 18 16 56
55 1 25 1 26
56 2 2 1 25
57 2 3 1 25
58 2 2 1 26
59 2 3 1 26
60 3 2 1 3
61 2 1 2 28
62 2 1 2 27
63 3 1 2 4
64 1 28 2 27
65 2 4 2 28
66 2 4 2 27
67 2 1 3 30
68 2 1 3 29
69 3 1 3 5
70 1 30 3 29
71 2 5 3 30
72 2 5 3 29
73 2 2 4 32
74 2 2 4 31
75 3 2 4 6
76 1 32 4 31
77 2 6 4 32
78 2 6 4 31
79 3 3 5 7
80 2 3 5 33
81 2 3 5 34
82 2 7 5 33
83 2 7 5 34
84 1 33 5 34
85 3 4 6 8
86 2 4 6 35
87 2 4 6 36
88 2 8 6 35
89 2 8 6 36
90 1 35 6 36
91 3 5 7 9
92 2 5 7 37
93 2 5 7 38
94 2 9 7 37
95 2 9 7 38
96 1 37 7 38
97 2 7 9 42
98 3 7 9 11
99 2 7 9 41
100 2 11 9 42
101 1 42 9 41
102 2 11 9 41
103 3 9 11 13
104 2 9 11 45
105 2 9 11 46
106 2 13 11 45
107 2 13 11 46
108 1 45 11 46
109 3 11 13 15
110 2 11 13 49
111 2 11 13 50
112 2 15 13 49
113 2 15 13 50
114 1 49 13 50
115 2 13 15 53
116 3 13 15 17
117 2 13 15 54
118 2 17 15 53
119 1 53 15 54
120 2 17 15 54
121 3 15 17 19
122 2 15 17 57
123 2 15 17 58
124 2 19 17 57
125 2 19 17 58
126 1 57 17 58
127 2 17 19 62
128 2 17 19 61
129 3 17 19 21
130 1 62 19 61
131 2 21 19 62
132 2 21 19 61
133 2 19 21 65
134 2 19 21 66
135 4 19 21 23
136 1 65 21 66
137 5 23 21 65
138 5 23 21 66
139 6 21 23 70
140 6 21 23 71
141 6 21 23 69
142 7 70 23 71
143 7 70 23 69
144 7 71 23 69

Dihedrals

1 2 20 18 16 55
2 2 20 18 16 56
3 2 16 18 20 64
4 2 16 18 20 63
5 3 16 18 20 22
6 1 60 18 20 64
7 1 60 18 20 63
8 1 59 18 20 64
9 1 59 18 20 63
10 2 22 20 18 60
11 2 22 20 18 59
12 2 18 20 22 68
13 2 18 20 22 67
14 4 18 20 22 24
15 1 64 20 22 68
16 1 64 20 22 67
17 1 63 20 22 68
18 1 63 20 22 67
19 5 24 22 20 64
20 5 24 22 20 63
21 6 20 22 24 73
22 6 20 22 24 74
23 6 20 22 24 72
24 7 68 22 24 73
25 7 68 22 24 74
26 7 68 22 24 72
27 7 67 22 24 73
28 7 67 22 24 74
29 7 67 22 24 72
30 2 10 8 6 35
31 2 10 8 6 36
32 3 6 8 10 12
33 2 6 8 10 44
34 2 6 8 10 43
35 1 40 8 10 44
36 1 40 8 10 43
37 1 39 8 10 44
38 1 39 8 10 43
39 2 12 10 8 40
40 2 12 10 8 39
41 3 8 10 12 14
42 2 8 10 12 47
43 2 8 10 12 48
44 1 44 10 12 47
45 1 44 10 12 48
46 1 43 10 12 47
47 1 43 10 12 48
48 2 14 12 10 44
49 2 14 12 10 43
50 3 10 12 14 16
51 2 10 12 14 52
52 2 10 12 14 51
53 1 47 12 14 52
54 1 47 12 14 51
55 1 48 12 14 52
56 1 48 12 14 51
57 2 16 14 12 47
58 2 16 14 12 48
59 2 12 14 16 55
60 2 12 14 16 56
61 3 12 14 16 18
62 1 52 14 16 55
63 1 52 14 16 56
64 1 51 14 16 55
65 1 51 14 16 56
66 2 18 16 14 52
67 2 18 16 14 51
68 2 14 16 18 60
69 2 14 16 18 59
70 3 14 16 18 20
71 1 55 16 18 60
72 1 55 16 18 59
73 1 56 16 18 60
74 1 56 16 18 59
75 1 25 1 2 28
76 1 25 1 2 27
77 1 26 1 2 28
78 1 26 1 2 27
79 2 3 1 2 28
80 2 3 1 2 27
81 3 3 1 2 4
82 1 25 1 3 30
83 1 25 1 3 29
84 1 26 1 3 30
85 1 26 1 3 29
86 2 2 1 3 30
87 2 2 1 3 29
88 3 2 1 3 5
89 2 4 2 1 25
90 2 4 2 1 26
91 2 1 2 4 32
92 2 1 2 4 31
93 3 1 2 4 6
94 1 28 2 4 32
95 1 28 2 4 31
96 1 27 2 4 32
97 1 27 2 4 31
98 2 5 3 1 25
99 2 5 3 1 26
100 3 1 3 5 7
101 2 1 3 5 33
102 2 1 3 5 34
103 1 30 3 5 33
104 1 30 3 5 34
105 1 29 3 5 33
106 1 29 3 5 34
107 2 6 4 2 28
108 2 6 4 2 27
109 3 2 4 6 8
110 2 2 4 6 35
111 2 2 4 6 36
112 1 32 4 6 35
113 1 32 4 6 36
114 1 31 4 6 35
115 1 31 4 6 36
116 2 7 5 3 30
117 2 7 5 3 29
118 3 3 5 7 9
119 2 3 5 7 37
120 2 3 5 7 38
121 1 33 5 7 37
122 1 33 5 7 38
123 1 34 5 7 37
124 1 34 5 7 38
125 2 8 6 4 32
126 2 8 6 4 31
127 3 4 6 8 10
128 2 4 6 8 40
129 2 4 6 8 39
130 1 35 6 8 40
131 1 35 6 8 39
132 1 36 6 8 40
133 1 36 6 8 39
134 2 9 7 5 33
135 2 9 7 5 34
136 2 5 7 9 42
137 3 5 7 9 11
138 2 5 7 9 41
139 1 37 7 9 42
140 1 37 7 9 41
141 1 38 7 9 42
142 1 38 7 9 41
143 2 11 9 7 37
144 2 11 9 7 38
145 3 7 9 11 13
146 2 7 9 11 45
147 2 7 9 11 46
148 1 42 9 11 45
149 1 42 9 11 46
150 1 41 9 11 45
151 1 41 9 11 46
152 2 13 11 9 42
153 2 13 11 9 41
154 3 9 11 13 15
155 2 9 11 13 49
156 2 9 11 13 50
157 1 45 11 13 49
158 1 45 11 13 50
159 1 46 11 13 49
160 1 46 11 13 50
161 2 15 13 11 45
162 2 15 13 11 46
163 2 11 13 15 53
164 3 11 13 15 17
165 2 11 13 15 54
166 1 49 13 15 53
167 1 49 13 15 54
168 1 50 13 15 53
169 1 50 13 15 54
170 2 17 15 13 49
171 2 17 15 13 50
172 3 13 15 17 19
173 2 13 15 17 57
174 2 13 15 17 58
175 1 53 15 17 57
176 1 53 15 17 58
177 1 54 15 17 57
178 1 54 15 17 58
179 2 19 17 15 53
180 2 19 17 15 54
181 2 15 17 19 62
182 2 15 17 19 61
183 3 15 17 19 21
184 1 57 17 19 62
185 1 57 17 19 61
186 1 58 17 19 62
187 1 58 17 19 61
188 2 21 19 17 57
189 2 21 19 17 58
190 2 17 19 21 65
191 2 17 19 21 66
192 4 17 19 21 23
193 1 62 19 21 65
194 1 62 19 21 66
195 1 61 19 21 65
196 1 61 19 21 66
197 5 23 21 19 62
198 5 23 21 19 61
199 6 19 21 23 70
200 6 19 21 23 71
201 6 19 21 23 69
202 7 65 21 23 70
203 7 65 21 23 71
204 7 65 21 23 69
205 7 66 21 23 70
206 7 66 21 23 71
207 7 66 21 23 69

Impropers

1 1 16 18 60 59
2 2 16 18 20 60
3 2 16 18 20 59
4 1 20 18 59 60
5 1 18 20 64 63
6 2 18 20 22 64
7 2 18 20 22 63
8 1 22 20 63 64
9 1 20 22 68 67
10 3 20 22 24 68
11 3 20 22 24 67
12 4 24 22 67 68
13 5 22 24 73 74
14 5 22 24 73 72
15 5 22 24 74 72
16 6 73 24 74 72
17 2 6 8 10 40
18 2 6 8 10 39
19 1 6 8 40 39
20 1 10 8 40 39
21 2 8 10 12 44
22 2 8 10 12 43
23 1 8 10 44 43
24 1 12 10 44 43
25 2 10 12 14 47
26 2 10 12 14 48
27 1 10 12 47 48
28 1 14 12 47 48
29 2 12 14 16 52
30 2 12 14 16 51
31 1 12 14 52 51
32 1 16 14 52 51
33 1 14 16 55 56
34 2 14 16 18 55
35 2 14 16 18 56
36 1 18 16 56 55
37 1 2 1 26 25
38 1 3 1 26 25
39 2 2 1 3 25
40 2 2 1 3 26
41 1 1 2 28 27
42 2 1 2 4 28
43 2 1 2 4 27
44 1 4 2 27 28
45 1 1 3 30 29
46 2 1 3 5 30
47 2 1 3 5 29
48 1 5 3 29 30
49 1 2 4 32 31
50 2 2 4 6 32
51 2 2 4 6 31
52 1 6 4 31 32
53 2 3 5 7 33
54 2 3 5 7 34
55 1 3 5 33 34
56 1 7 5 33 34
57 2 4 6 8 35
58 2 4 6 8 36
59 1 4 6 35 36
60 1 8 6 35 36
61 2 5 7 9 37
62 2 5 7 9 38
63 1 5 7 37 38
64 1 9 7 37 38
65 2 7 9 11 42
66 1 7 9 42 41
67 2 7 9 11 41
68 1 11 9 42 41
69 2 9 11 13 45
70 2 9 11 13 46
71 1 9 11 45 46
72 1 13 11 45 46
73 2 11 13 15 49
74 2 11 13 15 50
75 1 11 13 49 50
76 1 15 13 49 50
77 2 13 15 17 53
78 1 13 15 53 54
79 2 13 15 17 54
80 1 17 15 53 54
81 2 15 17 19 57
82 2 15 17 19 58
83 1 15 17 57 58
84 1 19 17 57 58
85 1 17 19 62 61
86 2 17 19 21 62
87 2 17 19 21 61
88 1 21 19 61 62
89 1 19 21 65 66
90 3 19 21 23 65
91 3 19 21 23 66
92 4 23 21 66 65
93 5 21 23 70 71
94 5 21 23 70 69
95 5 21 23 71 69
96 6 70 23 71 69
